version 3
run General-0-20250512-00:10:46-18184
attr configname General
attr datetime 20250512-00:10:46
attr datetimef 20250512-001046
attr experiment General
attr inifile omnetpp.ini
attr iterationvars ""
attr iterationvarsd ""
attr iterationvarsf ""
attr measurement ""
attr network Network
attr processid 18184
attr repetition 0
attr replication #0
attr resultdir results
attr runnumber 0
attr seedset 0
config network Network
config sim-time-limit 200s
config Network.gen.generationInterval exponential(0.001)
config Network.queue.serviceTime exponential(0.001)

vector 0 Network.sink Delay ETV
0	4	0.000795874505	0
0	8	0.002051805263	0.00035737037
0	13	0.003554039105	0
0	18	0.005505584441	0
0	23	0.007384548495	0
0	27	0.008422707796	6.1152875e-05
0	31	0.008998226993	0.000151543908
0	37	0.011221751415	0.002021909191
0	39	0.011540107556	0.002281880663
0	44	0.012573139173	0
0	48	0.014142035291	0.00091944977
0	53	0.014894796721	0
0	57	0.015734229574	0.000185550286
0	65	0.01833248366	0.002284932363
0	69	0.018423644686	0.000567724125
0	71	0.018444070274	0.000514464358
0	73	0.018903318411	0.000562134499
0	77	0.020690806074	0.001305009654
0	82	0.022535966349	0
0	86	0.024576280607	0.001889083404
0	94	0.028421502476	0.003693413057
0	98	0.029040431936	0.003670633344
0	104	0.03055696791	0.003581929761
0	110	0.031832195612	0.003243155388
0	112	0.031986925293	0.002662920648
0	116	0.032757759951	0.002297816364
0	118	0.034179124631	0.003593306635
0	120	0.034916951923	0.003309702053
0	122	0.035028898084	0.002549327019
0	126	0.035564463804	0.000190472261
0	131	0.036015686245	0
0	135	0.037503941071	0.001282051544
0	141	0.038113023494	0.000555843782
0	143	0.038258301521	0.000457073318
0	148	0.038641562909	0
0	154	0.039602943848	0.000569610128
0	156	0.03985438578	0.000658915571
0	162	0.040813933757	0.000671466871
0	164	0.043142847131	0.002511823196
0	170	0.044287986086	0.00077904713
0	176	0.045237480669	0.001130795636
0	178	0.046433588468	0.00188138494
0	180	0.046538149694	0.001411413759
0	185	0.047453086997	0
0	190	0.050953300681	0
0	194	0.052063898127	5.1763315e-05
0	198	0.052300104833	0.000100543955
0	203	0.052642964907	0
0	208	0.054032007597	0
0	213	0.054968069157	0
0	219	0.055812496951	0.000451315237
0	223	0.056818367956	0.001418003086
0	225	0.060011314598	0.004033625417
0	230	0.060432186027	0
0	235	0.06149001244	0
0	240	0.062498031685	0
0	245	0.067858132035	0
0	250	0.068730047889	0
0	254	0.06935798947	9.2876904e-05
0	259	0.069908893568	0
0	264	0.070885757642	0
0	269	0.071298258872	0
0	274	0.072421427174	0
0	279	0.072802983017	0
0	284	0.07430961835	0
0	289	0.077296808242	0
0	297	0.0790171399	0.000634062277
0	305	0.080836958819	0.002440216618
0	309	0.084585990279	0.006087103196
0	311	0.085218326875	0.005744337858
0	313	0.085930910468	0.005337107085
0	329	0.089692837753	0.008997999595
0	333	0.090025247994	0.005756821464
0	335	0.090153304759	0.003779556928
0	337	0.090598724221	0.004167649464
0	339	0.09094990031	0.003590347056
0	341	0.091605546594	0.003646046453
0	343	0.09173193523	0.002428189817
0	345	0.092898808757	0.003574873216
0	347	0.093281509706	0.003917597866
0	353	0.095405746903	0.005458956674
0	355	0.095472044304	0.001633683952
0	357	0.095716439752	0.001343195024
0	361	0.096895629279	1.8472768e-05
0	365	0.097731726811	2.1726784e-05
0	370	0.09971324055	0
0	374	0.1004539995	2.9511013e-05
0	379	0.102910070844	0
0	384	0.105450375352	0
0	396	0.108099631281	0.002562485447
0	398	0.108240961995	0.002378475745
0	402	0.109282742649	0.003036696185
0	410	0.11112402512	0.004868577905
0	414	0.111631225243	0.004274932118
0	422	0.112436022643	0.003232401867
0	424	0.112897753539	0.002434198953
0	426	0.112902460079	0.002097251326
0	428	0.113060801585	0.001948075108
0	432	0.114193435727	0.002878358811
0	434	0.114508157388	0.00230995143
0	438	0.115724666041	0.003506147624
0	440	0.116065012779	0.00366624211
0	450	0.119340155957	0.005175644216
0	454	0.119844499764	0.004836904991
0	460	0.12210823334	0.005771880693
0	464	0.122360653333	0.005456396533
0	468	0.12541293499	0.008222657217
0	472	0.126005559017	0.007404256835
0	476	0.127879018897	0.008419323747
0	478	0.129081257464	0.008724971443
0	480	0.129204784111	0.007999277278
0	482	0.129557804244	0.007333638681
0	486	0.131014622803	0.006568950342
0	488	0.1315453453	0.005960064875
0	492	0.132050364048	0.005868704229
0	500	0.134179863444	0.004155197042
0	504	0.136314693894	0.004609105287
0	506	0.137494076828	0.004663206204
0	510	0.138381938238	0.005263657138
0	514	0.139459773122	0.005470956196
0	518	0.140221640893	0.005857085125
0	520	0.140483698135	0.002754771914
0	522	0.141516495146	0.002495659656
0	524	0.142018805944	0.002302170993
0	529	0.142842103309	0
0	534	0.143806556874	0
0	539	0.144450661582	0
0	544	0.145085789298	0
0	549	0.146344832815	0
0	553	0.14668743244	2.934892e-06
0	557	0.147649807496	0.000481674261
0	562	0.148551112442	0
0	567	0.150658560047	0
0	573	0.151012784179	0.000245677034
0	575	0.151449812193	0.000585782293
0	579	0.152343541271	0.000635622898
0	585	0.153197621007	0.000687150648
0	597	0.156670156486	0.004125482709
0	599	0.156822450111	0.003218766949
0	601	0.157280622995	0.002621090224
0	603	0.15738294361	0.002336280747
0	605	0.157955405161	0.002344131797
0	613	0.162093214922	0.006231860063
0	617	0.162863291782	0.00473330293
0	619	0.16345736528	0.003102461771
0	623	0.163562977924	0.002906508502
0	633	0.166082260054	0.003784893054
0	635	0.167921992839	0.004407606344
0	637	0.168083862926	0.004464594595
0	639	0.170434040216	0.006380426229
0	641	0.172459949033	0.007153727521
0	643	0.172498231946	0.006558547816
0	648	0.17270507465	0
0	654	0.173661041074	0.000246048497
0	658	0.17517086453	0.001573333351
0	662	0.177172851026	0.003443136137
0	666	0.177702853904	0.002089210128
0	668	0.177853644914	0.000593282037
0	676	0.178376514944	0.000274271105
0	678	0.17957195351	0.001435922885
0	680	0.180039226076	0.001831520067
0	685	0.182257552848	0
0	691	0.183537887052	0.000735477076
0	693	0.183992798897	0.001138476369
0	705	0.187702759489	0.002835664225
0	707	0.18814901231	0.00326514928
0	713	0.191033624062	0.004213183795
0	715	0.191221919037	0.004139149461
0	719	0.19163653158	0.004541978772
0	725	0.192308992097	0.003766645207
0	729	0.192532131305	0.002680486051
0	731	0.192550826775	0.001312890169
0	735	0.192738345726	0.00076427802
0	737	0.19336094307	0.001331005311
0	739	0.193614448775	0.001170532093
0	745	0.195690479835	0.003048733646
0	749	0.198322698698	0.004102539787
0	757	0.199541495501	0.004897679489
0	759	0.199721452843	0.002193092543
0	761	0.200414652613	0.001949153595
0	767	0.201386134771	0.002012671726
0	773	0.202587105678	0.003181285828
0	775	0.205308453934	0.004371802858
0	777	0.205619421739	0.004631087757
0	779	0.206571251447	0.004721993828
0	783	0.207707847942	0.005586922253
0	789	0.209705019909	0.002704961332
0	793	0.21101480528	0.003247667048
0	795	0.211388691776	0.002730174967
0	797	0.212196671829	0.002148477956
0	802	0.213386128207	0
0	807	0.21362488108	0
0	812	0.213876479693	0
0	820	0.216765555285	0.002642216323
0	824	0.217439799855	0.002473482118
0	826	0.217697812619	0.001386147449
0	828	0.218838950522	0.001925606365
0	833	0.220427822838	0
0	838	0.220516977128	0
0	842	0.221086874693	0.000511825203
0	846	0.221460544487	0.000216381273
0	851	0.223372833309	0
0	856	0.227119527923	0
0	861	0.228080967495	0
0	866	0.228862943216	0
0	871	0.230791303353	0
0	876	0.232153235077	0
0	881	0.232804465809	0
0	886	0.233934821355	0
0	892	0.236204661371	0.001335779683
0	894	0.23683859139	0.000715506432
0	899	0.240762737484	0
0	903	0.241850641918	0.00047907152
0	908	0.243740488569	0
0	913	0.243888084602	0
0	917	0.245308468058	0.001160032044
0	922	0.246281999301	0
0	927	0.248629843062	0
0	932	0.249667693137	0
0	938	0.251445836474	0.001385570309
0	940	0.251445891826	0.000652257988
0	950	0.253506713067	0.001721574936
0	956	0.255672476748	0.003513575323
0	968	0.258725661418	0.006247185338
0	974	0.261670141695	0.008637494786
0	984	0.263792888349	0.009160521998
0	986	0.264523116014	0.009685401894
0	988	0.26516130462	0.009184532849
0	990	0.265187302365	0.008601485981
0	998	0.266430653143	0.008681723476
0	1004	0.267741625511	0.009332192764
0	1008	0.268364454821	0.00971230358
0	1012	0.268689670839	0.00848285666
0	1016	0.269573456495	0.009106002187
0	1020	0.271567495696	0.009787533395
0	1022	0.271692528286	0.009619614527
0	1028	0.272815988786	0.010366645675
0	1032	0.272957630821	0.010268364191
0	1036	0.274219443494	0.008373081323
0	1040	0.274723723427	0.008644836238
0	1044	0.275557101668	0.009311339838
0	1046	0.275759560432	0.008960960231
0	1048	0.275988804757	0.00872152808
0	1050	0.276145280527	0.007838798213
0	1052	0.276325554827	0.007777152868
0	1058	0.276995095418	0.008240335465
0	1062	0.278275519772	0.007872683646
0	1064	0.278306446064	0.006528929984
0	1066	0.27975600084	0.007249960917
0	1070	0.281130343854	0.008300104818
0	1072	0.281227511532	0.008205011055
0	1082	0.283568003493	0.009326503671
0	1088	0.284883629751	0.01002009301
0	1108	0.288152126152	0.011453326008
0	1116	0.290804684668	0.013972543901
0	1120	0.292342513382	0.015070917225
0	1122	0.292673423263	0.012581191158
0	1124	0.293889113736	0.012415918535
0	1126	0.294771994281	0.013053600987
0	1128	0.294972436476	0.013166934599
0	1130	0.295038528487	0.011849710144
0	1134	0.295756774967	0.011764564861
0	1138	0.296625340698	0.011754915513
0	1140	0.298174352377	0.013257239448
0	1144	0.30026590895	0.015114140172
0	1146	0.300678638817	0.015181350455
0	1150	0.300925054639	0.015089611562
0	1152	0.301532333928	0.015421362914
0	1154	0.301795911041	0.014554021548
0	1156	0.303906799815	0.016559223148
0	1162	0.30688900049	0.019476310958
0	1166	0.308146237486	0.02071698186
0	1168	0.308812079973	0.020571683325
0	1172	0.309807543616	0.021557863944
0	1180	0.311881305079	0.022523215653
0	1186	0.313771406777	0.022623327747
0	1192	0.31525564926	0.019951599134
0	1194	0.315682185072	0.019713327196
0	1196	0.317664933977	0.017902052318
0	1198	0.317825268071	0.017129774557
0	1202	0.319341337001	0.01538692251
0	1208	0.323543196427	0.018910979934
0	1214	0.324231139905	0.016762283219
0	1216	0.324545137803	0.015470822354
0	1218	0.325004929121	0.014697733209
0	1224	0.325533396349	0.014536765899
0	1234	0.327260029729	0.015916645975
0	1236	0.327388609966	0.014183794569
0	1240	0.327642621344	0.01422170973
0	1242	0.327745589708	0.013362666167
0	1244	0.328266668529	0.013870419743
0	1246	0.33024855887	0.012192652753
0	1248	0.331090695173	0.009026839401
0	1254	0.334699636178	0.011984983064
0	1258	0.336254930538	0.012139601727
0	1260	0.336784892117	0.012665506985
0	1266	0.338272321871	0.013132749651
0	1272	0.338782312705	0.013495515448
0	1276	0.339305280359	0.013459475432
0	1278	0.339569550823	0.013370149321
0	1288	0.342176122625	0.015766187835
0	1290	0.343469270484	0.016546621051
0	1292	0.343483317075	0.015844622324
0	1294	0.343494810325	0.011908482306
0	1298	0.344257234009	0.012249912692
0	1300	0.344620476228	0.009373191944
0	1302	0.344779409408	0.007161737543
0	1312	0.346923794873	0.008860973669
0	1316	0.348038682295	0.009570678209
0	1318	0.348320206317	0.009767622739
0	1322	0.348886100859	0.009974223376
0	1328	0.35028096995	0.009876460303
0	1332	0.352251027516	0.011704392358
0	1344	0.353549473152	0.012609335583
0	1346	0.353606439684	0.012611394742
0	1350	0.354253614388	0.010203709667
0	1356	0.35492291726	0.009400808381
0	1360	0.355531981715	0.009927010563
0	1364	0.356681723103	0.010788239241
0	1368	0.357871219354	0.011883860945
0	1370	0.358204622692	0.011085885515
0	1374	0.358772793176	0.009991090218
0	1382	0.360526507821	0.011199147148
0	1384	0.360616845065	0.010474466061
0	1386	0.360675372964	0.008763374137
0	1390	0.361754299872	0.009365822462
0	1392	0.361985720844	0.00949570935
0	1396	0.363493936076	0.010688764553
0	1400	0.36499634887	0.011895275474
0	1402	0.36529667395	0.01205463267
0	1404	0.365493135836	0.011354765351
0	1410	0.365961242289	0.011463910486
0	1412	0.365970977698	0.011169674336
0	1414	0.366289561546	0.010874819094
0	1424	0.368515645535	0.012357319891
0	1428	0.369131564819	0.012389815404
0	1430	0.369177202868	0.010520611195
0	1432	0.370433096352	0.011298586691
0	1436	0.372041514201	0.012707149002
0	1438	0.372121593057	0.012075219792
0	1442	0.372755525183	0.011155406416
0	1450	0.374898624883	0.012104492745
0	1454	0.375434029234	0.010760778662
0	1456	0.37562532528	0.009808384087
0	1458	0.376662570374	0.010773210071
0	1460	0.377307478865	0.010532357916
0	1462	0.377343481695	0.010104970718
0	1468	0.378874330114	0.011492566116
0	1470	0.379587714397	0.011986482238
0	1474	0.379761909557	0.010650215797
0	1476	0.379917195143	0.008213052774
0	1480	0.381060990522	0.008681897179
0	1482	0.381386161392	0.00827552271
0	1490	0.382161003772	0.008683913798
0	1492	0.382320015789	0.008172693938
0	1504	0.385452845279	0.010443855936
0	1508	0.386237682299	0.008023884126
0	1512	0.386848165144	0.008071541769
0	1518	0.388985586834	0.009396065098
0	1522	0.390596918833	0.010239143755
0	1530	0.392693555107	0.011287490924
0	1532	0.39324921402	0.011705196605
0	1538	0.394420477715	0.012482402728
0	1540	0.395288447697	0.012851680377
0	1544	0.395685528647	0.01307456261
0	1550	0.397099311977	0.014281160758
0	1556	0.398413834075	0.015457096035
0	1558	0.398588829123	0.013288851153
0	1560	0.398598643559	0.01243372748
0	1566	0.400190199682	0.013928486131
0	1568	0.400455292783	0.011779562801
0	1570	0.401068038228	0.012305691252
0	1572	0.401768063864	0.012392112678
0	1574	0.402662065267	0.011998152106
0	1580	0.40573514049	0.014562024842
0	1586	0.406346198051	0.01507496288
0	1588	0.407318208942	0.01370310413
0	1590	0.408175644045	0.013919565688
0	1594	0.4101635835	0.014704791359
0	1596	0.410335122127	0.013616688815
0	1600	0.412730301916	0.015984426504
0	1602	0.414420536871	0.016663892296
0	1604	0.414509369254	0.016478261157
0	1606	0.414683025817	0.015195357508
0	1608	0.414782247343	0.014925996094
0	1612	0.415773526849	0.012719020623
0	1614	0.416281746303	0.011277263165
0	1620	0.41926352596	0.013443024258
0	1624	0.419815229573	0.013892175978
0	1628	0.420114557955	0.011157561788
0	1632	0.422005287109	0.01132922163
0	1634	0.422039158964	0.006479594495
0	1636	0.422405864118	0.005842248475
0	1654	0.425599625991	0.008971244655
0	1662	0.427466266461	0.008077280669
0	1664	0.428606545338	0.008624477949
0	1666	0.428711478085	0.007428573269
0	1670	0.429650980071	0.007012356741
0	1672	0.429754650908	0.006988454004
0	1674	0.431790945095	0.008585671205
0	1676	0.431887486374	0.008095443677
0	1678	0.432492920156	0.008259722648
0	1682	0.432550513073	0.007820106279
0	1684	0.432641020543	0.007894150465
0	1686	0.432905955481	0.007400120629
0	1690	0.433176679872	0.007465992753
0	1700	0.435006222028	0.008782607917
0	1704	0.435566230401	0.008574153713
0	1706	0.435636732349	0.005995467399
0	1708	0.436423291441	0.003876106887
0	1714	0.436713564856	0.003770814702
0	1720	0.437581426726	0.003685554034
0	1722	0.437721902443	0.00379239583
0	1724	0.438193870531	0.003525443898
0	1726	0.438205979776	0.003521824019
0	1732	0.438881335646	0.003477534991
0	1734	0.439844928342	0.003391785521
0	1736	0.440125504268	0.003639357462
0	1742	0.443785066386	0.007048968763
0	1744	0.443831801288	0.006803757593
0	1746	0.444357832084	0.005855366164
0	1748	0.444728993805	0.006103812878
0	1750	0.444906870563	0.002284126159
0	1752	0.446687805238	0.003596139507
0	1757	0.447731945727	0
0	1762	0.449377129154	0
0	1774	0.453924953006	0.003526105505
0	1776	0.454265190226	0.003407314798
0	1778	0.454338241883	0.003412832298
0	1782	0.454614547076	0.003314075548
0	1786	0.455700750387	0.002871339988
0	1788	0.455983197099	0.001535125634
0	1792	0.456988130408	0.00138939635
0	1798	0.45960377134	0.003525824588
0	1802	0.460155573462	0.002981434149
0	1806	0.460964553157	0.003062036271
0	1810	0.461302899276	0.001476643819
0	1812	0.462529031488	0.002014262143
0	1818	0.46386930745	0.002796211316
0	1822	0.464316447353	0.001514231581
0	1824	0.466080534745	0.002742420178
0	1826	0.466531773543	0.002601001558
0	1834	0.469121599688	0.001720182622
0	1838	0.469386381961	0.001478241681
0	1840	0.469814889565	0.001859650014
0	1848	0.472584034048	0.003286774756
0	1850	0.473064912272	0.003171481089
0	1854	0.476537767978	0.004957118506
0	1858	0.478891102746	0.007013079746
0	1860	0.479242870131	0.003131831335
0	1862	0.479371908634	0.002066379894
0	1878	0.484201628882	0.004622392975
0	1880	0.484467445431	0.004611736807
0	1882	0.484910779827	0.004768162108
0	1884	0.486081215557	0.005679485582
0	1890	0.486567734697	0.006054060181
0	1892	0.487879697778	0.00669364036
0	1894	0.488000529174	0.003799503484
0	1900	0.490135231569	0.003712991696
0	1902	0.490277734515	0.003795366273
0	1908	0.490754250336	0.00178625101
0	1910	0.491146411626	0.001181113376
0	1916	0.492527870706	0.002244517911
0	1924	0.494115227936	0.003363079449
0	1928	0.494466549218	0.003245522575
0	1934	0.496637775099	0.004276953049
0	1938	0.496909245065	0.004276867223
0	1940	0.497607182614	0.004786240048
0	1944	0.498417675761	0.004895687686
0	1946	0.498642718255	0.004524180263
0	1948	0.499647833904	0.005166217072
0	1950	0.500443056105	0.004133913005
0	1956	0.502462640608	0.005719832653
0	1958	0.502891552444	0.004807842764
0	1960	0.504280910951	0.003339775923
0	1962	0.504305839047	0.00263147868
0	1968	0.505508396392	0.001017124295
0	1970	0.505649789505	0.000997374829
0	1978	0.510834918928	0.002741560204
0	1980	0.510908425305	0.00158434773
0	1986	0.511854527046	0.001929294825
0	1988	0.512019820058	0.000859907961
0	1990	0.512613150626	0.001106805202
0	1994	0.513153553324	0.000532749668
0	1999	0.513811785109	0
0	2005	0.514738423709	0.00045129893
0	2013	0.517963739793	0.003571218884
0	2015	0.517983229086	0.003108132962
0	2017	0.518774838181	0.001642265266
0	2029	0.522665748271	0.005457983547
0	2031	0.522908493708	0.002265105592
0	2033	0.523430605012	0.002465876593
0	2035	0.524297897031	0.003172438571
0	2039	0.525101033803	0.003078522329
0	2041	0.525418011183	0.003096146706
0	2043	0.525736852231	0.001144277647
0	2048	0.528311982895	0
0	2053	0.531821046446	0
0	2057	0.532106615367	0.000259740877
0	2062	0.534036521205	0
0	2067	0.535269609932	0
0	2071	0.535736474276	0.000141447627
0	2076	0.537847519519	0
0	2082	0.539236196793	0.001361796654
0	2086	0.539635992065	0.000779063583
0	2090	0.543050916967	0.003788262141
0	2092	0.54323553284	0.001393764883
0	2097	0.543824580537	0
0	2102	0.5461421066	0
0	2106	0.54673294182	0.000190453689
0	2111	0.548742817451	0
0	2116	0.549461183286	0
0	2122	0.55080863211	0.000632814637
0	2124	0.551563843928	0.000898918044
0	2128	0.552537722519	0.000731753301
0	2133	0.554701086835	0
0	2138	0.556934726686	0
0	2143	0.558065183884	0
0	2147	0.559192944318	0.000108807253
0	2157	0.561306851133	0.001427841232
0	2165	0.563246899343	0.003049496426
0	2167	0.563603065125	0.002621105511
0	2169	0.563610980472	0.002468536751
0	2175	0.564227573561	0.002752869216
0	2179	0.564983739809	0.003478333691
0	2195	0.567536216303	0.005022796645
0	2199	0.567955695626	0.004203239461
0	2201	0.56892916817	0.004710414979
0	2203	0.568937716189	0.00469412979
0	2205	0.56926492657	0.004204747482
0	2219	0.572734320409	0.007226053353
0	2225	0.573922649569	0.008320627125
0	2229	0.575210539808	0.008909936358
0	2231	0.575702981184	0.008881598869
0	2233	0.575705688059	0.008717509986
0	2235	0.575963272925	0.008950481208
0	2237	0.57700511739	0.0094380572
0	2239	0.577611829799	0.007678479345
0	2243	0.578529101596	0.008360345275
0	2245	0.579417630308	0.00807480385
0	2247	0.581212303422	0.009746514397
0	2255	0.584502952252	0.012932450954
0	2261	0.585695268026	0.01326405202
0	2263	0.586850742755	0.014077352057
0	2267	0.587563699234	0.014015791748
0	2269	0.587970112101	0.013307593612
0	2271	0.587999643912	0.010363917084
0	2275	0.589564300463	0.008350071909
0	2277	0.589666602244	0.005989729421
0	2279	0.590448486667	0.00675459822
0	2283	0.591031946839	0.006237589862
0	2285	0.591765816806	0.006390451174
0	2287	0.59224886983	0.005193221798
0	2289	0.593432897566	0.005331424241
0	2291	0.595076250801	0.004454888782
0	2296	0.595347757216	0
0	2301	0.595965809593	0
0	2306	0.597719257711	0
0	2310	0.598695549734	0.000201678287
0	2314	0.600875570181	0.000198984845
0	2319	0.602797739793	0
0	2324	0.603195688188	0
0	2332	0.607137146873	0.003423230837
0	2336	0.60783575044	0.003335151289
0	2346	0.610391268157	0.003836616522
0	2348	0.611532883681	0.004006183078
0	2354	0.613304237	0.005300538646
0	2356	0.613348164234	0.00456329709
0	2358	0.615871181695	0.006306779522
0	2360	0.615994591167	0.006301310348
0	2362	0.616031290237	0.003770076789
0	2366	0.616143820183	0.003544165602
0	2370	0.616524331132	0.000473666422
0	2374	0.616807403568	0.000564643282
0	2376	0.617634729492	0.000899090438
0	2381	0.619775170644	0
0	2386	0.622143406697	0
0	2392	0.624317639604	0.001306477764
0	2396	0.624589505443	0.000667197795
0	2398	0.625459120804	0.00094551037
0	2403	0.626898225777	0
0	2409	0.627980327661	0.000924429831
0	2417	0.628962565845	0.001497750486
0	2423	0.631381617239	0.003336512292
0	2425	0.631422038817	0.003297363715
0	2427	0.631991474931	0.003418470522
0	2429	0.63205329108	0.002288034429
0	2435	0.632782297801	0.002732821406
0	2445	0.635165366074	0.003008109321
0	2447	0.63537306936	0.003152789163
0	2449	0.636489587934	0.003625582931
0	2453	0.637745583533	0.004677793148
0	2459	0.638485835724	0.00407141805
0	2477	0.644681745843	0.009696822181
0	2487	0.648195724666	0.01092740697
0	2495	0.649336249141	0.011315161793
0	2497	0.650270829557	0.011886695055
0	2499	0.650640808737	0.011870180053
0	2503	0.651290219464	0.012516486423
0	2507	0.651624294547	0.012400848138
0	2509	0.651896645773	0.011763628659
0	2517	0.654109873005	0.013340752437
0	2527	0.656744004401	0.014927691578
0	2543	0.660267155742	0.01797563348
0	2547	0.66116126163	0.018864536235
0	2549	0.662237652089	0.016052281971
0	2553	0.662753099639	0.016375771619
0	2555	0.662791388437	0.015323814831
0	2567	0.67002485689	0.022159804204
0	2569	0.671039815848	0.022827834279
0	2571	0.672154682702	0.023719102075
0	2577	0.673831617435	0.025330743212
0	2579	0.674661878082	0.023561330614
0	2583	0.676867278886	0.025250527963
0	2585	0.678313586458	0.025694273127
0	2587	0.678434044726	0.025092129157
0	2589	0.679632196114	0.025723578585
0	2593	0.679949965455	0.025582596623
0	2595	0.680035586249	0.025058455244
0	2599	0.680195386029	0.024321569187
0	2601	0.680260069634	0.023974552214
0	2603	0.680281997015	0.023431224314
0	2605	0.68055893924	0.022809764173
0	2607	0.680706571123	0.022814172785
0	2609	0.681272700675	0.022942562881
0	2613	0.681574655678	0.023142702242
0	2617	0.683623238835	0.024121202909
0	2621	0.683820970603	0.023898267005
0	2623	0.684388858296	0.023409713704
0	2625	0.684513651388	0.021810114911
0	2627	0.684906868675	0.021697068231
0	2629	0.685020042007	0.017634797959
0	2631	0.685895680805	0.018076737287
0	2633	0.686786534607	0.018373125072
0	2639	0.689542747684	0.01985133602
0	2645	0.691427612298	0.018961446012
0	2647	0.692334475405	0.019558112996
0	2653	0.696434409698	0.019918898811
0	2663	0.697952778846	0.018292270406
0	2667	0.69910775338	0.019038527286
0	2671	0.700177084438	0.018658536475
0	2681	0.702158039734	0.019901355028
0	2685	0.703123475534	0.01938361742
0	2691	0.703605454744	0.016677712458
0	2695	0.703790610797	0.01549481449
0	2697	0.705753734087	0.014631413809
0	2703	0.708022703174	0.01684644594
0	2707	0.708658753645	0.014736244541
0	2709	0.7087818641	0.01263557218
0	2713	0.70943531736	0.012778530277
0	2717	0.710145387706	0.013010024052
0	2721	0.713564524209	0.016191494684
0	2723	0.713669838628	0.01613686489
0	2735	0.715615623212	0.01663450335
0	2741	0.716132790139	0.016942105791
0	2743	0.716193464439	0.014712522871
0	2751	0.717306328251	0.015816415296
0	2753	0.718557276912	0.016965045477
0	2757	0.71906754831	0.017380750138
0	2759	0.719547840124	0.017172331108
0	2765	0.720057268634	0.016811679708
0	2767	0.720526876666	0.017004800056
0	2771	0.721480162597	0.017856537216
0	2773	0.721552778655	0.013733884654
0	2777	0.722534563561	0.014655351536
0	2783	0.724987869403	0.016792420272
0	2789	0.726283747219	0.017447382665
0	2791	0.72666386625	0.017216747521
0	2795	0.726780936289	0.01342367679
0	2797	0.727300190014	0.013391792567
0	2801	0.728795421132	0.014846565729
0	2805	0.729125527826	0.015051884901
0	2813	0.730377036783	0.015642314057
0	2815	0.730887295933	0.015836145816
0	2817	0.7310035876	0.015339470214
0	2821	0.731760441917	0.015828101438
0	2823	0.731849527874	0.015406674819
0	2827	0.733064283583	0.016489218928
0	2833	0.734071556271	0.017073801828
0	2835	0.736272373145	0.017331418146
0	2837	0.736381405009	0.016421054822
0	2841	0.737527483044	0.017544914205
0	2851	0.739746778566	0.019198998092
0	2853	0.740264702011	0.018633373349
0	2859	0.743442132632	0.020082544597
0	2861	0.743896420209	0.019477187231
0	2875	0.748734007658	0.023200659944
0	2879	0.750584096878	0.024659064624
0	2883	0.751051250104	0.024356355914
0	2885	0.75130338978	0.022816841254
0	2887	0.751670657947	0.022664287476
0	2889	0.751754617987	0.022361050049
0	2901	0.752525249048	0.023101273116
0	2903	0.75255051017	0.022301962515
0	2911	0.752858448966	0.021273332894
0	2913	0.752926304844	0.020409002031
0	2915	0.753178179629	0.019565226946
0	2927	0.755118041389	0.02147500591
0	2929	0.756602855463	0.019762161227
0	2935	0.758765260406	0.01990590241
0	2937	0.7589317506	0.020042767852
0	2939	0.759335503507	0.020445312457
0	2941	0.759558142359	0.019902412227
0	2945	0.76080616059	0.0183823304
0	2949	0.761362931401	0.018196377461
0	2953	0.761722027084	0.016964270881
0	2955	0.761795039628	0.01682586225
0	2961	0.763315915536	0.017907883981
0	2963	0.763807460895	0.018380121235
0	2973	0.766427662472	0.019114207705
0	2975	0.766528167996	0.018484591209
0	2979	0.767026684328	0.017510494678
0	2983	0.769133476454	0.018342435351
0	2989	0.770307194182	0.018512628691
0	2991	0.772809352165	0.020925615592
0	2993	0.774233483181	0.02202874895
0	2997	0.775100224252	0.022645236741
0	3001	0.775708843606	0.023245128199
0	3009	0.776737048924	0.024167957376
0	3017	0.777537957607	0.024813046873
0	3019	0.777761746379	0.02496839677
0	3025	0.778906632828	0.025392230815
0	3027	0.779009212088	0.025033584297
0	3031	0.779752347742	0.025599839245
0	3033	0.7798772086	0.025668016222
0	3035	0.780380634715	0.025351183344
0	3037	0.780554803936	0.023104015919
0	3039	0.780820173894	0.022759826696
0	3041	0.780868111094	0.020532043913
0	3045	0.781748629532	0.020845194231
0	3047	0.783122348797	0.021467641122
0	3049	0.78312621662	0.021041586742
0	3051	0.784065235224	0.021432692908
0	3053	0.784261955913	0.02023902427
0	3057	0.785127104972	0.020929351329
0	3059	0.785313554606	0.021086421016
0	3061	0.785398426017	0.0207401906
0	3065	0.786557941983	0.019639306119
0	3073	0.790321622777	0.021354248919
0	3075	0.790719683782	0.020650913846
0	3077	0.791428219857	0.021145367726
0	3079	0.793051209874	0.018398357992
0	3083	0.793408461669	0.018302196369
0	3085	0.794205860145	0.018404319064
0	3087	0.794742482228	0.018468712398
0	3095	0.797413507202	0.020846673874
0	3097	0.797724399265	0.02070357449
0	3099	0.799005195588	0.021682042675
0	3115	0.801104014017	0.023639408999
0	3117	0.801487082084	0.023337356988
0	3119	0.802343248241	0.023471864397
0	3121	0.804300666633	0.025104465984
0	3127	0.805332587336	0.024226831668
0	3131	0.805920631148	0.02128363408
0	3133	0.806330258308	0.020744274893
0	3137	0.807178525118	0.019456347777
0	3139	0.808668774205	0.019674986862
0	3145	0.811569683246	0.021637887787
0	3147	0.812087712303	0.018762986129
0	3149	0.812560505848	0.017425668663
0	3151	0.81481759299	0.019145572068
0	3159	0.818203333893	0.021795756216
0	3167	0.819329386691	0.020163247691
0	3169	0.819573316361	0.020373722602
0	3175	0.821056275725	0.021391596222

